LAMMPS (22 Jun 2018)
OMP_NUM_THREADS environment is not set. Defaulting to 1 thread. (../comm.cpp:87)
  using 1 OpenMP thread(s) per MPI task
# 2d LJ crack simulation

dimension	2
boundary	s s p

atom_style	atomic
neighbor	0.3 bin
neigh_modify	delay 5

# create geometry

lattice		hex 0.93
Lattice spacing in x,y,z = 1.11428 1.92998 1.11428
region		box block 0 100 0 40 -0.25 0.25
create_box	5 box
Created orthogonal box = (0 0 -0.278569) to (111.428 77.1994 0.278569)
  1 by 1 by 1 MPI processor grid
create_atoms	1 box
Created 8141 atoms
  Time spent = 0.00101018 secs

mass		1 1.0
mass		2 1.0
mass		3 1.0
mass		4 1.0
mass		5 1.0

# LJ potentials

pair_style	lj/cut 2.5
pair_coeff	* * 1.0 1.0 2.5

# define groups

region	        1 block INF INF INF 1.25 INF INF
group		lower region 1
302 atoms in group lower
region		2 block INF INF 38.75 INF INF INF
group		upper region 2
302 atoms in group upper
group		boundary union lower upper
604 atoms in group boundary
group		mobile subtract all boundary
7537 atoms in group mobile

region		leftupper block INF 20 20 INF INF INF
region		leftlower block INF 20 INF 20 INF INF
group		leftupper region leftupper
841 atoms in group leftupper
group		leftlower region leftlower
841 atoms in group leftlower

set		group leftupper type 2
  841 settings made for type
set		group leftlower type 3
  841 settings made for type
set		group lower type 4
  302 settings made for type
set		group upper type 5
  302 settings made for type

# initial velocities

compute	  	new mobile temp
velocity	mobile create 0.01 887723 temp new
velocity	upper set 0.0 0.3 0.0
velocity	mobile ramp vy 0.0 0.3 y 1.25 38.75 sum yes

# fixes

fix		1 all nve
fix		2 boundary setforce NULL 0.0 0.0

# run

timestep	0.003
thermo		100
thermo_style custom step time temp pxx pyy cpuremain

neigh_modify	exclude type 2 3

run	5000
Neighbor list info ...
  update every 1 steps, delay 5 steps, check yes
  max neighbors/atom: 2000, page size: 100000
  master list distance cutoff = 2.8
  ghost atom cutoff = 2.8
  binsize = 1.4, bins = 80 56 1
  1 neighbor lists, perpetual/occasional/extra = 1 0 0
  (1) pair lj/cut, perpetual
      attributes: half, newton on
      pair build: half/bin/atomonly/newton
      stencil: half/bin/2d/newton
      bin: standard
Per MPI rank memory allocation (min/avg/max) = 3.112 | 3.112 | 3.112 Mbytes
Step Time Temp Pxx Pyy CPULeft 
       0            0  0.066999022  -0.08406601  0.023352245            0 
     100          0.3  0.062586901  -0.11310916  -0.12882594    4.0526512 
     200          0.6  0.061882589  -0.15947586  -0.29123755    3.9601936 
     300          0.9  0.062212437  -0.20547907  -0.45464633    3.8933103 
     400          1.2  0.062324688  -0.24426358  -0.60503271    3.8236127 
     500          1.5  0.062352633  -0.27815189  -0.74875218    3.7779129 
     600          1.8  0.062615145  -0.31014555  -0.88379594    3.6933088 
     700          2.1   0.06288345  -0.33133642   -1.0125663    3.6005621 
     800          2.4   0.06341206  -0.35037809   -1.1344373      3.52275 
     900          2.7  0.063615289  -0.36733706   -1.2505378    3.4798663 
    1000            3  0.064084368  -0.37838922   -1.3583945    3.4124527 
    1100          3.3  0.064762835  -0.38621191   -1.4615187    3.3192973 
    1200          3.6  0.065321008  -0.39091417   -1.5578001    3.2478472 
    1300          3.9  0.066159989   -0.3939606   -1.6518818    3.3870026 
    1400          4.2  0.066915292  -0.39096277   -1.7364292     3.486163 
    1500          4.5  0.067935205  -0.38911792   -1.8224931    3.3925409 
    1600          4.8  0.068950603  -0.38173567   -1.8978622    3.3557195 
    1700          5.1  0.069647678  -0.36882884   -1.9719961    3.3213802 
    1800          5.4  0.070589688  -0.35355604    -2.038963    3.2253121 
    1900          5.7  0.071376824  -0.33506745   -2.1008265    3.1103899 
    2000            6  0.072218214  -0.31363701   -2.1606285    2.9923156 
    2100          6.3  0.073139872  -0.29218486   -2.2124962    2.8702529 
    2200          6.6  0.074092142  -0.26797305   -2.2605065    2.7532846 
    2300          6.9  0.075078297  -0.24243601   -2.3024656     2.640411 
    2400          7.2  0.076021461  -0.21236784   -2.3419383    2.5274417 
    2500          7.5   0.07677898  -0.17776117   -2.3745273    2.4174831 
    2600          7.8  0.077802484   -0.1431674   -2.4033595     2.312941 
    2700          8.1  0.078773028  -0.10947863   -2.4268424    2.2132354 
    2800          8.4    0.0795636 -0.075949648   -2.4439372    2.1139918 
    2900          8.7   0.08053241 -0.040620709   -2.4583448    2.0170037 
    3000            9  0.081509075 -0.0066445715   -2.4693983    1.9186533 
    3100          9.3  0.082590961  0.026296862   -2.4745466    1.8241662 
    3200          9.6  0.083747868  0.058053159   -2.4750398    1.7243286 
    3300          9.9  0.084896121  0.089586381   -2.4800392    1.6260691 
    3400         10.2  0.085918049    0.1227962   -2.4785809    1.5281092 
    3500         10.5   0.08669673   0.15909307   -2.4774432    1.4290658 
    3600         10.8  0.087672157   0.19877206   -2.4736765    1.3308412 
    3700         11.1  0.088566473   0.23131529   -2.4672682    1.2317458 
    3800         11.4  0.089161561   0.26596102   -2.4542366    1.1360173 
    3900         11.7  0.089763483   0.29277009   -2.4428439    1.0402159 
    4000           12   0.08985281   0.31122192   -2.4251574   0.94414878 
    4100         12.3  0.088138682   0.32632891    -2.406837   0.84869343 
    4200         12.6  0.086254998   0.33387816   -2.3979692   0.75338155 
    4300         12.9  0.085723564   0.34342733   -2.3952074   0.65787515 
    4400         13.2  0.086494787   0.34461302   -2.3906185   0.56331614 
    4500         13.5   0.08682319   0.33886131   -2.3786501   0.46870711 
    4600         13.8  0.087008602   0.32460744   -2.3547476   0.37420783 
    4700         14.1  0.087520366   0.29442151   -2.3239268   0.28058808 
    4800         14.4  0.088731576   0.25391148   -2.2960552   0.18685521 
    4900         14.7  0.089962836   0.21900237   -2.2574458  0.093313777 
    5000           15  0.090608908   0.18841703   -2.2179781            0 
Loop time of 4.65965 on 1 procs for 5000 steps with 8141 atoms

Performance: 278132.601 tau/day, 1073.042 timesteps/s
97.5% CPU use with 1 MPI tasks x 1 OpenMP threads

MPI task timing breakdown:
Section |  min time  |  avg time  |  max time  |%varavg| %total
---------------------------------------------------------------
Pair    | 3.9478     | 3.9478     | 3.9478     |   0.0 | 84.72
Neigh   | 0.19429    | 0.19429    | 0.19429    |   0.0 |  4.17
Comm    | 0.0036759  | 0.0036759  | 0.0036759  |   0.0 |  0.08
Output  | 0.0041168  | 0.0041168  | 0.0041168  |   0.0 |  0.09
Modify  | 0.38046    | 0.38046    | 0.38046    |   0.0 |  8.16
Other   |            | 0.1293     |            |       |  2.77

Nlocal:    8141 ave 8141 max 8141 min
Histogram: 1 0 0 0 0 0 0 0 0 0
Nghost:    0 ave 0 max 0 min
Histogram: 1 0 0 0 0 0 0 0 0 0
Neighs:    71389 ave 71389 max 71389 min
Histogram: 1 0 0 0 0 0 0 0 0 0

Total # of neighbors = 71389
Ave neighs/atom = 8.76907
Neighbor list builds = 100
Dangerous builds = 0

thermo_style custom step time temp pxx pyy press cpuremain

run 5000
Per MPI rank memory allocation (min/avg/max) = 3.114 | 3.114 | 3.114 Mbytes
Step Time Temp Pxx Pyy Press CPULeft 
    5000           15  0.090608908   0.18837991   -2.2175412   -1.0145806            0 
    5100         15.3  0.091245887   0.14407923   -2.1711508   -1.0135358    4.4449849 
    5200         15.6  0.091839804  0.091121561   -2.0998723   -1.0043754    4.3448181 
    5300         15.9  0.094453238  0.014115988    -2.021764    -1.003824    4.2634337 
    5400         16.2  0.096707467 -0.090196664   -1.9160294    -1.003113    4.1779729 
    5500         16.5   0.10033942  -0.21809813   -1.7938504   -1.0059743    4.1051702 
    5600         16.8   0.10621254   -0.3489582   -1.6504528  -0.99970551    4.0361934 
    5700         17.1   0.11294739  -0.46604782   -1.4626835  -0.96436566    3.9937672 
    5800         17.4   0.11606476  -0.52859387   -1.2515736  -0.89008373    3.9104784 
    5900         17.7   0.12036583  -0.54743406    -1.067752  -0.80759303    3.8190275 
    6000           18   0.12319937  -0.52864435  -0.91180314  -0.72022375    3.7308521 
    6100         18.3   0.12750402  -0.48741571   -0.7664699   -0.6269428    3.6385232 
    6200         18.6   0.13138215  -0.40723012   -0.6355442  -0.52138716    3.5447954 
    6300         18.9   0.13547924  -0.33527477  -0.54607801  -0.44067639    3.4510812 
    6400         19.2   0.13787406  -0.28779527  -0.47130925  -0.37955226     3.360955 
    6500         19.5   0.14098059  -0.23394595  -0.44459574  -0.33927084    3.2724419 
    6600         19.8   0.14427435   -0.2046593  -0.44273376  -0.32369653    3.1779037 
    6700         20.1   0.14402616  -0.15224598  -0.40945993  -0.28085295     3.100527 
    6800         20.4   0.14650767  -0.13052827  -0.41706736  -0.27379781    3.0109762 
    6900         20.7   0.15169782  -0.12366203  -0.41010956  -0.26688579    2.9211366 
    7000           21   0.15378158  -0.07576874  -0.40276577  -0.23926725    2.8384817 
    7100         21.3   0.15648546 -0.042006532  -0.39284705  -0.21742679    2.7480278 
    7200         21.6    0.1586544 -0.015158462  -0.39615573   -0.2056571    2.6563434 
    7300         21.9   0.16021716   0.02084344  -0.40989747  -0.19452701    2.5576256 
    7400         22.2   0.16305481  0.027777436  -0.45547888  -0.21385072    2.4610896 
    7500         22.5   0.16284144  0.079005006  -0.47705735  -0.19902617     2.364706 
    7600         22.8   0.16426335   0.07728209  -0.47217063  -0.19744427    2.2714654 
    7700         23.1   0.16554325  0.070668071  -0.45276681  -0.19104937    2.1746407 
    7800         23.4   0.16829508  0.056401348  -0.42215026  -0.18287445    2.0809541 
    7900         23.7   0.17000245  0.082559769  -0.37151525  -0.14447774    1.9876522 
    8000           24   0.17149488   0.10974507  -0.35277134  -0.12151313    1.8950588 
    8100         24.3   0.17313528   0.10325942  -0.31901721   -0.1078789    1.8009028 
    8200         24.6   0.17267217    0.1318115   -0.2919738 -0.080081147      1.70855 
    8300         24.9   0.17391638   0.12915917  -0.31054187 -0.090691346    1.6136714 
    8400         25.2   0.17382715   0.11504449  -0.32285694  -0.10390622    1.5196391 
    8500         25.5   0.17441655   0.10977096  -0.32785489  -0.10904197     1.423041 
    8600         25.8   0.17552551   0.10950002  -0.30515982 -0.097829901    1.3278802 
    8700         26.1   0.17565159   0.12382868  -0.32804391  -0.10210762    1.2330269 
    8800         26.4   0.17832953  0.081307133  -0.31380308  -0.11624797    1.1381309 
    8900         26.7   0.17801754   0.10200027  -0.27974562 -0.088872672     1.042844 
    9000           27   0.17788921    0.1300792  -0.27419009 -0.072055444   0.94771475 
    9100         27.3   0.17860872   0.11537032   -0.2803544 -0.082492039   0.85234547 
    9200         27.6   0.17841788   0.12414385  -0.25380882 -0.064832486   0.75768498 
    9300         27.9   0.17625963   0.13723586  -0.21105379 -0.036908965    0.6636656 
    9400         28.2   0.17801505   0.12331144  -0.21061868 -0.043653619   0.56854242 
    9500         28.5   0.17714527   0.15181865   -0.2079837 -0.028082526   0.47324755 
    9600         28.8   0.17967835   0.13556573   -0.1990823  -0.03175828    0.3783334 
    9700         29.1   0.17705493   0.15394524  -0.17111212 -0.0085834388   0.28408232 
    9800         29.4   0.17817334   0.17353827  -0.18089706 -0.003679395   0.19037521 
    9900         29.7   0.17661448   0.17217651  -0.15407839 0.0090490616  0.095067632 
   10000           30   0.17731223   0.19355368   -0.1423432   0.02560524            0 
Loop time of 4.74984 on 1 procs for 5000 steps with 8141 atoms

Performance: 272851.240 tau/day, 1052.667 timesteps/s
99.1% CPU use with 1 MPI tasks x 1 OpenMP threads

MPI task timing breakdown:
Section |  min time  |  avg time  |  max time  |%varavg| %total
---------------------------------------------------------------
Pair    | 3.8358     | 3.8358     | 3.8358     |   0.0 | 80.76
Neigh   | 0.4183     | 0.4183     | 0.4183     |   0.0 |  8.81
Comm    | 0.0051625  | 0.0051625  | 0.0051625  |   0.0 |  0.11
Output  | 0.0040231  | 0.0040231  | 0.0040231  |   0.0 |  0.08
Modify  | 0.36433    | 0.36433    | 0.36433    |   0.0 |  7.67
Other   |            | 0.1222     |            |       |  2.57

Nlocal:    8141 ave 8141 max 8141 min
Histogram: 1 0 0 0 0 0 0 0 0 0
Nghost:    0 ave 0 max 0 min
Histogram: 1 0 0 0 0 0 0 0 0 0
Neighs:    69249 ave 69249 max 69249 min
Histogram: 1 0 0 0 0 0 0 0 0 0

Total # of neighbors = 69249
Ave neighs/atom = 8.5062
Neighbor list builds = 185
Dangerous builds = 0

thermo_style custom step temp pxx pyy cpuremain

run 400
Per MPI rank memory allocation (min/avg/max) = 3.116 | 3.116 | 3.116 Mbytes
Step Temp Pxx Pyy CPULeft 
   10000   0.17731223   0.19351318  -0.14231342            0 
   10100   0.17832333   0.20504646  -0.11497251   0.26945114 
   10200   0.17837879   0.23324545  -0.06602532   0.18344402 
   10300   0.17835133   0.24793925 -0.074760067  0.092408021 
   10400   0.17897071   0.24298626 -0.082191499            0 
Loop time of 0.369093 on 1 procs for 400 steps with 8141 atoms

Performance: 280904.857 tau/day, 1083.738 timesteps/s
99.6% CPU use with 1 MPI tasks x 1 OpenMP threads

MPI task timing breakdown:
Section |  min time  |  avg time  |  max time  |%varavg| %total
---------------------------------------------------------------
Pair    | 0.29446    | 0.29446    | 0.29446    |   0.0 | 79.78
Neigh   | 0.036822   | 0.036822   | 0.036822   |   0.0 |  9.98
Comm    | 0.0004859  | 0.0004859  | 0.0004859  |   0.0 |  0.13
Output  | 0.00031304 | 0.00031304 | 0.00031304 |   0.0 |  0.08
Modify  | 0.027533   | 0.027533   | 0.027533   |   0.0 |  7.46
Other   |            | 0.009483   |            |       |  2.57

Nlocal:    8141 ave 8141 max 8141 min
Histogram: 1 0 0 0 0 0 0 0 0 0
Nghost:    0 ave 0 max 0 min
Histogram: 1 0 0 0 0 0 0 0 0 0
Neighs:    69164 ave 69164 max 69164 min
Histogram: 1 0 0 0 0 0 0 0 0 0

Total # of neighbors = 69164
Ave neighs/atom = 8.49576
Neighbor list builds = 16
Dangerous builds = 0
Total wall time: 0:00:09
